HEADER
"PSFversion" "1.00"
"Time Stamp" "Aug 22 14:26:05 2017"
TYPE
"variable" STRUCT(
"value" FLOAT DOUBLE
) PROP( "key" "element" )
VALUE
"vd" "variable" ( 3 ) PROP( )
"r0" "variable" ( 1000 ) PROP( )
"temp" "variable" ( 27 ) PROP( )
END
