HEADER
"PSFversion" "1.00"
"Time Stamp" "Sep  1 18:51:29 2017"
TYPE
"variable" STRUCT(
"value" FLOAT DOUBLE
) PROP( "key" "element" )
VALUE
"vinp" "variable" ( 150e-3 ) PROP( )
"temp" "variable" ( 27 ) PROP( )
END
