HEADER
"PSFversion" "1.00"
"Time Stamp" "Aug 30 13:49:33 2017"
TYPE
"variable" STRUCT(
"value" FLOAT DOUBLE
) PROP( "key" "element" )
VALUE
"vinp" "variable" ( 300e-3 ) PROP( )
"temp" "variable" ( 27 ) PROP( )
END
